# vtk DataFile Version 2.0
disque.vtk, Created by Freefem++ 
ASCII
DATASET UNSTRUCTURED_GRID
POINTS 47 float
-1.1755705 -1.618034 0
-1.902113 -0.61803399 0
-1.618034 -1.1755705 0
-0.61803399 -1.902113 0
-0.74229375 -1.2845453 0
-2 -3.0896717e-15 0
-1.355565 -0.60290962 0
-0.80901699 -0.58778525 0
-0.30901699 -0.95105652 0
2.9672071e-15 -2 0
-0.1545085 -1.4755283 0
-1.902113 0.61803399 0
-1.4510565 0.30901699 0
-1.618034 1.1755705 0
0.61803399 -1.902113 0
-1 1.2246468e-16 0
-0.30150283 -0.48982105 0
0.30901699 -0.95105652 0
0.46352549 -1.4265848 0
-1.2135255 0.88167788 0
-0.80901699 0.58778525 0
-1.1755705 1.618034 0
1.1755705 -1.618034 0
-0.39699434 0.19592841 0
0.20601133 -0.39185684 0
0.80901699 -0.58778525 0
1.2135255 -0.88167788 0
-0.74229375 1.2845453 0
-0.30901699 0.95105652 0
-0.61803399 1.902113 0
1.618034 -1.1755705 0
1.902113 -0.61803399 0
0.20601133 0.39185683 0
1 0 0
1.4510565 -0.309017 0
0.30901699 0.95105652 0
-0.1545085 1.4755283 0
-1.5448359e-15 2 0
2 0 0
0.80901699 0.58778525 0
1.4510565 0.30901699 0
0.61803399 1.902113 0
0.46352549 1.4265848 0
1.902113 0.61803399 0
1.2135255 0.88167788 0
1.1755705 1.618034 0
1.618034 1.1755705 0

CELLS 102 378
3 38 43 40
3 44 43 46
3 33 40 39
3 33 34 40
3 44 40 43
3 45 44 46
3 39 40 44
3 44 45 42
3 39 44 42
3 42 41 37
3 39 42 35
3 45 41 42
3 37 36 42
3 35 42 36
3 36 29 27
3 27 29 21
3 19 27 21
3 36 37 29
3 28 36 27
3 28 35 36
3 20 27 19
3 19 21 13
3 12 11 5
3 20 12 15
3 19 11 12
3 28 27 20
3 13 11 19
3 20 19 12
3 12 5 6
3 5 1 6
3 12 6 15
3 6 2 4
3 15 6 7
3 1 2 6
3 2 0 4
3 7 6 4
3 4 3 10
3 18 9 14
3 4 10 8
3 7 4 8
3 0 3 4
3 3 9 10
3 8 10 17
3 10 9 18
3 18 22 26
3 10 18 17
3 14 22 18
3 18 25 17
3 22 30 26
3 31 34 26
3 34 33 25
3 26 34 25
3 18 26 25
3 30 31 26
3 31 38 34
3 34 38 40
3 33 39 32
3 32 39 35
3 15 16 23
3 24 33 32
3 16 15 7
3 28 23 32
3 20 15 23
3 23 28 20
3 32 35 28
3 24 16 17
3 25 24 17
3 32 23 24
3 33 24 25
3 16 8 17
3 23 16 24
3 7 8 16
2 38 43
2 43 46
2 46 45
2 45 41
2 41 37
2 37 29
2 29 21
2 21 13
2 13 11
2 11 5
2 5 1
2 1 2
2 2 0
2 0 3
2 3 9
2 9 14
2 14 22
2 22 30
2 30 31
2 31 38
2 33 39
2 39 35
2 35 28
2 28 20
2 20 15
2 15 7
2 7 8
2 8 17
2 17 25
2 25 33

CELL_TYPES 102
5 5 5 5 5 5 5 5 5 5 5 5 5 5 5 5 5 5 5 5 5 5 5 5 5 5 5 5 5 5 5 5 5 5 5 5 5 5 5 5 5 5 5 5 5 5 5 5 5 5 5 5 5 5 5 5 5 5 5 5 5 5 5 5 5 5 5 5 5 5 5 5 3 3 3 3 3 3 3 3 3 3 3 3 3 3 3 3 3 3 3 3 3 3 3 3 3 3 3 3 3 3 
CELL_DATA 102
Scalars  Label int 1
LOOKUP_TABLE FreeFempp_table
0
0
0
0
0
0
0
0
0
0
0
0
0
0
0
0
0
0
0
0
0
0
0
0
0
0
0
0
0
0
0
0
0
0
0
0
0
0
0
0
0
0
0
0
0
0
0
0
0
0
0
0
0
0
0
0
1
1
1
1
1
1
1
1
1
1
1
1
1
1
1
1
5
5
5
5
5
5
5
5
5
5
5
5
5
5
5
5
5
5
5
5
3
3
3
3
3
3
3
3
3
3

LOOKUP_TABLE FreeFempp_table 4
1.00000000 0.00000000 0.00000000 1.00000000
1.00000000 1.00000000 0.00000000 1.00000000
0.00000000 1.00000000 0.00000000 1.00000000
0.00000000 0.00000000 1.00000000 1.00000000

FIELD FieldData 3
kkdjd 1 102 float
1.85657811e+00 1.85719311e+00 1.18992519e+00 1.37980139e+00 1.71374297e+00 1.85719323e+00 1.38041675e+00 1.71436715e+00 1.38104093e+00 1.85720360e+00 1.19055021e+00 1.85720372e+00 1.71382213e+00 1.38049567e+00 1.71367562e+00 1.85705638e+00 1.71684039e+00 1.85664666e+00 1.38034856e+00 1.18999314e+00 1.38351297e+00 1.85981226e+00 1.85128498e+00 1.18463004e+00 1.71106768e+00 1.19040179e+00 1.85981214e+00 1.37774026e+00 1.69904935e+00 1.84779406e+00 1.36572182e+00 1.70055044e+00 1.18113899e+00 1.84779406e+00 1.85278714e+00 1.36722338e+00 1.70879316e+00 1.85710514e+00 1.37546670e+00 1.18613183e+00 1.85278594e+00 1.85603559e+00 1.18938279e+00 1.71311259e+00 1.71426296e+00 1.37978613e+00 1.85710514e+00 1.19045162e+00 1.85718751e+00 1.71373653e+00 1.18992436e+00 1.38041031e+00 1.38093662e+00 1.85718739e+00 1.85657728e+00 1.71312809e+00 1.00004768e+00 1.00004864e+00 1.00004733e+00 1.00004733e+00 1.00004780e+00 1.00004649e+00 1.00004661e+00 1.00004578e+00 1.00004709e+00 1.00004816e+00 1.00004864e+00 1.00004756e+00 1.00004780e+00 1.00004768e+00 1.00004756e+00 1.00004768e+00 1.85657811e+00 1.85719311e+00 1.85719323e+00 1.85720372e+00 1.85720360e+00 1.85664666e+00 1.85705638e+00 1.85981226e+00 1.85981214e+00 1.85128498e+00 1.84779406e+00 1.84779406e+00 1.85278714e+00 1.85278594e+00 1.85603559e+00 1.85710514e+00 1.85710514e+00 1.85718751e+00 1.85718739e+00 1.85657728e+00 1.00004768e+00 1.00004864e+00 1.00004709e+00 1.00004578e+00 1.00004661e+00 1.00004780e+00 1.00004768e+00 1.00004768e+00 1.00004864e+00 1.00004780e+00 
jyqql 1 102 float
1.78438985e+00 1.57789087e+00 1.08669114e+00 1.30070436e+00 1.52223170e+00 1.33571005e+00 1.15786636e+00 9.50873852e-01 8.28689337e-01 3.60519826e-01 5.27186513e-01 7.52376676e-01 1.03005663e-01 2.06011325e-01 -5.04945397e-01 -8.45299423e-01 -1.04379654e+00 -2.57514149e-01 -4.01939750e-01 -5.15028350e-02 -9.21612084e-01 -1.33571005e+00 -1.78438985e+00 -1.08669114e+00 -1.52223170e+00 -6.20109260e-01 -1.57789087e+00 -1.15786636e+00 -1.60220718e+00 -1.75255930e+00 -1.26887381e+00 -1.23863089e+00 -1.05486071e+00 -1.62523735e+00 -1.17863274e+00 -9.68958616e-01 -5.04945397e-01 3.60519826e-01 -4.01939750e-01 -6.20109260e-01 -8.45299423e-01 -2.57514149e-01 -5.15028350e-02 1.03005663e-01 9.50873852e-01 2.06011325e-01 7.52376676e-01 5.27186513e-01 1.33571005e+00 1.52223170e+00 1.08669114e+00 1.15786636e+00 8.28689337e-01 1.57789087e+00 1.78438985e+00 1.63403773e+00 6.71676099e-01 4.41348433e-01 -5.66165745e-01 4.70674217e-01 -7.03506589e-01 -1.66666672e-01 -7.35337138e-01 -5.05009413e-01 6.86704442e-02 7.11751655e-02 4.41348433e-01 5.00944024e-03 6.71676099e-01 -1.00500941e-01 -1.64161950e-01 -4.73178953e-01 1.78438985e+00 1.57789087e+00 1.33571005e+00 7.52376676e-01 3.60519826e-01 -2.57514149e-01 -8.45299423e-01 -1.33571005e+00 -1.57789087e+00 -1.78438985e+00 -1.75255930e+00 -1.62523735e+00 -1.17863274e+00 -8.45299423e-01 -2.57514149e-01 3.60519826e-01 7.52376676e-01 1.33571005e+00 1.57789087e+00 1.78438985e+00 6.71676099e-01 4.41348433e-01 6.86704442e-02 -5.05009413e-01 -7.35337138e-01 -7.03506589e-01 -4.73178953e-01 -1.00500941e-01 4.41348433e-01 6.71676099e-01 
vector 2 102 float
1.85657811e+00 1.78438985e+00 1.85719311e+00 1.57789087e+00 1.18992519e+00 1.08669114e+00 1.37980139e+00 1.30070436e+00 1.71374297e+00 1.52223170e+00 1.85719323e+00 1.33571005e+00 1.38041675e+00 1.15786636e+00 1.71436715e+00 9.50873852e-01 1.38104093e+00 8.28689337e-01 1.85720360e+00 3.60519826e-01 1.19055021e+00 5.27186513e-01 1.85720372e+00 7.52376676e-01 1.71382213e+00 1.03005663e-01 1.38049567e+00 2.06011325e-01 1.71367562e+00 -5.04945397e-01 1.85705638e+00 -8.45299423e-01 1.71684039e+00 -1.04379654e+00 1.85664666e+00 -2.57514149e-01 1.38034856e+00 -4.01939750e-01 1.18999314e+00 -5.15028350e-02 1.38351297e+00 -9.21612084e-01 1.85981226e+00 -1.33571005e+00 1.85128498e+00 -1.78438985e+00 1.18463004e+00 -1.08669114e+00 1.71106768e+00 -1.52223170e+00 1.19040179e+00 -6.20109260e-01 1.85981214e+00 -1.57789087e+00 1.37774026e+00 -1.15786636e+00 1.69904935e+00 -1.60220718e+00 1.84779406e+00 -1.75255930e+00 1.36572182e+00 -1.26887381e+00 1.70055044e+00 -1.23863089e+00 1.18113899e+00 -1.05486071e+00 1.84779406e+00 -1.62523735e+00 1.85278714e+00 -1.17863274e+00 1.36722338e+00 -9.68958616e-01 1.70879316e+00 -5.04945397e-01 1.85710514e+00 3.60519826e-01 1.37546670e+00 -4.01939750e-01 1.18613183e+00 -6.20109260e-01 1.85278594e+00 -8.45299423e-01 1.85603559e+00 -2.57514149e-01 1.18938279e+00 -5.15028350e-02 1.71311259e+00 1.03005663e-01 1.71426296e+00 9.50873852e-01 1.37978613e+00 2.06011325e-01 1.85710514e+00 7.52376676e-01 1.19045162e+00 5.27186513e-01 1.85718751e+00 1.33571005e+00 1.71373653e+00 1.52223170e+00 1.18992436e+00 1.08669114e+00 1.38041031e+00 1.15786636e+00 1.38093662e+00 8.28689337e-01 1.85718739e+00 1.57789087e+00 1.85657728e+00 1.78438985e+00 1.71312809e+00 1.63403773e+00 1.00004768e+00 6.71676099e-01 1.00004864e+00 4.41348433e-01 1.00004733e+00 -5.66165745e-01 1.00004733e+00 4.70674217e-01 1.00004780e+00 -7.03506589e-01 1.00004649e+00 -1.66666672e-01 1.00004661e+00 -7.35337138e-01 1.00004578e+00 -5.05009413e-01 1.00004709e+00 6.86704442e-02 1.00004816e+00 7.11751655e-02 1.00004864e+00 4.41348433e-01 1.00004756e+00 5.00944024e-03 1.00004780e+00 6.71676099e-01 1.00004768e+00 -1.00500941e-01 1.00004756e+00 -1.64161950e-01 1.00004768e+00 -4.73178953e-01 1.85657811e+00 1.78438985e+00 1.85719311e+00 1.57789087e+00 1.85719323e+00 1.33571005e+00 1.85720372e+00 7.52376676e-01 1.85720360e+00 3.60519826e-01 1.85664666e+00 -2.57514149e-01 1.85705638e+00 -8.45299423e-01 1.85981226e+00 -1.33571005e+00 1.85981214e+00 -1.57789087e+00 1.85128498e+00 -1.78438985e+00 1.84779406e+00 -1.75255930e+00 1.84779406e+00 -1.62523735e+00 1.85278714e+00 -1.17863274e+00 1.85278594e+00 -8.45299423e-01 1.85603559e+00 -2.57514149e-01 1.85710514e+00 3.60519826e-01 1.85710514e+00 7.52376676e-01 1.85718751e+00 1.33571005e+00 1.85718739e+00 1.57789087e+00 1.85657728e+00 1.78438985e+00 1.00004768e+00 6.71676099e-01 1.00004864e+00 4.41348433e-01 1.00004709e+00 6.86704442e-02 1.00004578e+00 -5.05009413e-01 1.00004661e+00 -7.35337138e-01 1.00004780e+00 -7.03506589e-01 1.00004768e+00 -4.73178953e-01 1.00004768e+00 -1.00500941e-01 1.00004864e+00 4.41348433e-01 1.00004780e+00 6.71676099e-01 
POINT_DATA 47
FIELD FieldData 2
bidule45 1 47 float
2.00003123e+00 2.00003099e+00 2.00003004e+00 2.00002599e+00 1.55830038e+00 2.00003004e+00 1.54332113e+00 1.00004852e+00 1.00004685e+00 2.00002789e+00 1.56805289e+00 2.00002789e+00 1.55379689e+00 2.00003052e+00 2.00003052e+00 1.00004733e+00 1.00004768e+00 1.00004876e+00 1.57125688e+00 1.57937813e+00 1.00004566e+00 2.00002789e+00 2.00002813e+00 1.00004697e+00 1.00004804e+00 1.00004923e+00 1.57150388e+00 1.57111502e+00 1.00004482e+00 2.00002623e+00 2.00003052e+00 2.00002789e+00 1.00004768e+00 1.00004613e+00 1.56967783e+00 1.00004876e+00 1.56988573e+00 2.00002789e+00 2.00002623e+00 1.00004923e+00 1.56968021e+00 2.00003052e+00 1.57155252e+00 2.00002789e+00 1.57152092e+00 2.00002813e+00 2.00003052e+00 
nnn 2 47 float
2.00003123e+00 -1.17557049e+00 2.00003099e+00 -1.90211308e+00 2.00003004e+00 -1.61803401e+00 2.00002599e+00 -6.18034005e-01 1.55830038e+00 -7.42293775e-01 2.00003004e+00 -2.00000000e+00 1.54332113e+00 -1.35556507e+00 1.00004852e+00 -8.09017003e-01 1.00004685e+00 -3.09017003e-01 2.00002789e+00 2.96720702e-15 1.56805289e+00 -1.54508501e-01 2.00002789e+00 -1.90211308e+00 1.55379689e+00 -1.45105648e+00 2.00003052e+00 -1.61803401e+00 2.00003052e+00 6.18034005e-01 1.00004733e+00 -1.00000000e+00 1.00004768e+00 -3.01502824e-01 1.00004876e+00 3.09017003e-01 1.57125688e+00 4.63525504e-01 1.57937813e+00 -1.21352553e+00 1.00004566e+00 -8.09017003e-01 2.00002789e+00 -1.17557049e+00 2.00002813e+00 1.17557049e+00 1.00004697e+00 -3.96994352e-01 1.00004804e+00 2.06011325e-01 1.00004923e+00 8.09017003e-01 1.57150388e+00 1.21352553e+00 1.57111502e+00 -7.42293775e-01 1.00004482e+00 -3.09017003e-01 2.00002623e+00 -6.18034005e-01 2.00003052e+00 1.61803401e+00 2.00002789e+00 1.90211308e+00 1.00004768e+00 2.06011325e-01 1.00004613e+00 1.00000000e+00 1.56967783e+00 1.45105648e+00 1.00004876e+00 3.09017003e-01 1.56988573e+00 -1.54508501e-01 2.00002789e+00 -1.54483584e-15 2.00002623e+00 2.00000000e+00 1.00004923e+00 8.09017003e-01 1.56968021e+00 1.45105648e+00 2.00003052e+00 6.18034005e-01 1.57155252e+00 4.63525504e-01 2.00002789e+00 1.90211308e+00 1.57152092e+00 1.21352553e+00 2.00002813e+00 1.17557049e+00 2.00003052e+00 1.61803401e+00 
