# vtk DataFile Version 2.0
sol.vtk, Created by Freefem++ 
ASCII
DATASET UNSTRUCTURED_GRID
POINTS 125 float
0.00000000 0.00000000 0.00000000
0.50000000 0.00000000 0.00000000
1.00000000 0.00000000 0.00000000
0.00000000 0.50000000 0.00000000
0.50000000 0.50000000 0.00000000
1.00000000 0.50000000 0.00000000
0.00000000 1.00000000 0.00000000
0.50000000 1.00000000 0.00000000
1.00000000 1.00000000 0.00000000
0.00000000 0.00000000 0.50000000
0.50000000 0.00000000 0.50000000
1.00000000 0.00000000 0.50000000
0.00000000 0.50000000 0.50000000
0.50000000 0.50000000 0.50000000
1.00000000 0.50000000 0.50000000
0.00000000 1.00000000 0.50000000
0.50000000 1.00000000 0.50000000
1.00000000 1.00000000 0.50000000
0.00000000 0.00000000 1.00000000
0.50000000 0.00000000 1.00000000
1.00000000 0.00000000 1.00000000
0.00000000 0.50000000 1.00000000
0.50000000 0.50000000 1.00000000
1.00000000 0.50000000 1.00000000
0.00000000 1.00000000 1.00000000
0.50000000 1.00000000 1.00000000
1.00000000 1.00000000 1.00000000
0.00000000 0.00000000 0.25000000
0.00000000 0.25000000 0.50000000
0.25000000 0.25000000 0.50000000
0.00000000 0.25000000 0.25000000
0.25000000 0.25000000 0.25000000
0.25000000 0.50000000 0.50000000
0.25000000 0.00000000 0.25000000
0.25000000 0.00000000 0.50000000
0.50000000 0.25000000 0.50000000
0.25000000 0.00000000 0.00000000
0.50000000 0.00000000 0.25000000
0.50000000 0.25000000 0.25000000
0.25000000 0.25000000 0.00000000
0.50000000 0.25000000 0.00000000
0.50000000 0.50000000 0.25000000
0.00000000 0.25000000 0.00000000
0.25000000 0.50000000 0.00000000
0.25000000 0.50000000 0.25000000
0.00000000 0.50000000 0.25000000
0.75000000 0.25000000 0.50000000
0.75000000 0.25000000 0.25000000
0.75000000 0.50000000 0.50000000
0.75000000 0.00000000 0.25000000
0.75000000 0.00000000 0.50000000
1.00000000 0.25000000 0.50000000
0.75000000 0.00000000 0.00000000
1.00000000 0.00000000 0.25000000
1.00000000 0.25000000 0.25000000
0.75000000 0.25000000 0.00000000
1.00000000 0.25000000 0.00000000
1.00000000 0.50000000 0.25000000
0.75000000 0.50000000 0.00000000
0.75000000 0.50000000 0.25000000
0.00000000 0.75000000 0.50000000
0.25000000 0.75000000 0.50000000
0.00000000 0.75000000 0.25000000
0.25000000 0.75000000 0.25000000
0.25000000 1.00000000 0.50000000
0.50000000 0.75000000 0.50000000
0.50000000 0.75000000 0.25000000
0.25000000 0.75000000 0.00000000
0.50000000 0.75000000 0.00000000
0.50000000 1.00000000 0.25000000
0.00000000 0.75000000 0.00000000
0.25000000 1.00000000 0.00000000
0.25000000 1.00000000 0.25000000
0.00000000 1.00000000 0.25000000
0.75000000 0.75000000 0.50000000
0.75000000 0.75000000 0.25000000
0.75000000 1.00000000 0.50000000
1.00000000 0.75000000 0.50000000
1.00000000 0.75000000 0.25000000
0.75000000 0.75000000 0.00000000
1.00000000 0.75000000 0.00000000
1.00000000 1.00000000 0.25000000
0.75000000 1.00000000 0.00000000
0.75000000 1.00000000 0.25000000
0.00000000 0.00000000 0.75000000
0.00000000 0.25000000 1.00000000
0.25000000 0.25000000 1.00000000
0.00000000 0.25000000 0.75000000
0.25000000 0.25000000 0.75000000
0.25000000 0.50000000 1.00000000
0.25000000 0.00000000 0.75000000
0.25000000 0.00000000 1.00000000
0.50000000 0.25000000 1.00000000
0.50000000 0.00000000 0.75000000
0.50000000 0.25000000 0.75000000
0.50000000 0.50000000 0.75000000
0.25000000 0.50000000 0.75000000
0.00000000 0.50000000 0.75000000
0.75000000 0.25000000 1.00000000
0.75000000 0.25000000 0.75000000
0.75000000 0.50000000 1.00000000
0.75000000 0.00000000 0.75000000
0.75000000 0.00000000 1.00000000
1.00000000 0.25000000 1.00000000
1.00000000 0.00000000 0.75000000
1.00000000 0.25000000 0.75000000
1.00000000 0.50000000 0.75000000
0.75000000 0.50000000 0.75000000
0.00000000 0.75000000 1.00000000
0.25000000 0.75000000 1.00000000
0.00000000 0.75000000 0.75000000
0.25000000 0.75000000 0.75000000
0.25000000 1.00000000 1.00000000
0.50000000 0.75000000 1.00000000
0.50000000 0.75000000 0.75000000
0.50000000 1.00000000 0.75000000
0.25000000 1.00000000 0.75000000
0.00000000 1.00000000 0.75000000
0.75000000 0.75000000 1.00000000
0.75000000 0.75000000 0.75000000
0.75000000 1.00000000 1.00000000
1.00000000 0.75000000 1.00000000
1.00000000 0.75000000 0.75000000
1.00000000 1.00000000 0.75000000
0.75000000 1.00000000 0.75000000

CELLS 576 2688
4 9 27 28 29
4 27 28 29 30
4 27 30 29 31
4 30 29 31 32
4 28 30 32 29
4 27 0 30 31
4 28 30 12 32
4 29 31 32 13
4 0 27 33 31
4 27 33 31 34
4 27 34 31 29
4 34 31 29 35
4 33 34 35 31
4 27 9 34 29
4 33 34 10 35
4 31 29 35 13
4 1 36 37 38
4 36 37 38 33
4 36 33 38 31
4 33 38 31 35
4 37 33 35 38
4 36 0 33 31
4 37 33 10 35
4 38 31 35 13
4 0 36 39 31
4 36 39 31 40
4 36 40 31 38
4 40 31 38 41
4 39 40 41 31
4 36 1 40 38
4 39 40 4 41
4 31 38 41 13
4 3 42 43 44
4 42 43 44 39
4 42 39 44 31
4 39 44 31 41
4 43 39 41 44
4 42 0 39 31
4 43 39 4 41
4 44 31 41 13
4 0 42 30 31
4 42 30 31 45
4 42 45 31 44
4 45 31 44 32
4 30 45 32 31
4 42 3 45 44
4 30 45 12 32
4 31 44 32 13
4 10 37 35 46
4 37 35 46 38
4 37 38 46 47
4 38 46 47 48
4 35 38 48 46
4 37 1 38 47
4 35 38 13 48
4 46 47 48 14
4 1 37 49 47
4 37 49 47 50
4 37 50 47 46
4 50 47 46 51
4 49 50 51 47
4 37 10 50 46
4 49 50 11 51
4 47 46 51 14
4 2 52 53 54
4 52 53 54 49
4 52 49 54 47
4 49 54 47 51
4 53 49 51 54
4 52 1 49 47
4 53 49 11 51
4 54 47 51 14
4 1 52 55 47
4 52 55 47 56
4 52 56 47 54
4 56 47 54 57
4 55 56 57 47
4 52 2 56 54
4 55 56 5 57
4 47 54 57 14
4 4 40 58 59
4 40 58 59 55
4 40 55 59 47
4 55 59 47 57
4 58 55 57 59
4 40 1 55 47
4 58 55 5 57
4 59 47 57 14
4 1 40 38 47
4 40 38 47 41
4 40 41 47 59
4 41 47 59 48
4 38 41 48 47
4 40 4 41 59
4 38 41 13 48
4 47 59 48 14
4 12 45 60 61
4 45 60 61 62
4 45 62 61 63
4 62 61 63 64
4 60 62 64 61
4 45 3 62 63
4 60 62 15 64
4 61 63 64 16
4 3 45 44 63
4 45 44 63 32
4 45 32 63 61
4 32 63 61 65
4 44 32 65 63
4 45 12 32 61
4 44 32 13 65
4 63 61 65 16
4 4 43 41 66
4 43 41 66 44
4 43 44 66 63
4 44 66 63 65
4 41 44 65 66
4 43 3 44 63
4 41 44 13 65
4 66 63 65 16
4 3 43 67 63
4 43 67 63 68
4 43 68 63 66
4 68 63 66 69
4 67 68 69 63
4 43 4 68 66
4 67 68 7 69
4 63 66 69 16
4 6 70 71 72
4 70 71 72 67
4 70 67 72 63
4 67 72 63 69
4 71 67 69 72
4 70 3 67 63
4 71 67 7 69
4 72 63 69 16
4 3 70 62 63
4 70 62 63 73
4 70 73 63 72
4 73 63 72 64
4 62 73 64 63
4 70 6 73 72
4 62 73 15 64
4 63 72 64 16
4 13 41 65 74
4 41 65 74 66
4 41 66 74 75
4 66 74 75 76
4 65 66 76 74
4 41 4 66 75
4 65 66 16 76
4 74 75 76 17
4 4 41 59 75
4 41 59 75 48
4 41 48 75 74
4 48 75 74 77
4 59 48 77 75
4 41 13 48 74
4 59 48 14 77
4 75 74 77 17
4 5 58 57 78
4 58 57 78 59
4 58 59 78 75
4 59 78 75 77
4 57 59 77 78
4 58 4 59 75
4 57 59 14 77
4 78 75 77 17
4 4 58 79 75
4 58 79 75 80
4 58 80 75 78
4 80 75 78 81
4 79 80 81 75
4 58 5 80 78
4 79 80 8 81
4 75 78 81 17
4 7 68 82 83
4 68 82 83 79
4 68 79 83 75
4 79 83 75 81
4 82 79 81 83
4 68 4 79 75
4 82 79 8 81
4 83 75 81 17
4 4 68 66 75
4 68 66 75 69
4 68 69 75 83
4 69 75 83 76
4 66 69 76 75
4 68 7 69 83
4 66 69 16 76
4 75 83 76 17
4 18 84 85 86
4 84 85 86 87
4 84 87 86 88
4 87 86 88 89
4 85 87 89 86
4 84 9 87 88
4 85 87 21 89
4 86 88 89 22
4 9 84 90 88
4 84 90 88 91
4 84 91 88 86
4 91 88 86 92
4 90 91 92 88
4 84 18 91 86
4 90 91 19 92
4 88 86 92 22
4 10 34 93 94
4 34 93 94 90
4 34 90 94 88
4 90 94 88 92
4 93 90 92 94
4 34 9 90 88
4 93 90 19 92
4 94 88 92 22
4 9 34 29 88
4 34 29 88 35
4 34 35 88 94
4 35 88 94 95
4 29 35 95 88
4 34 10 35 94
4 29 35 13 95
4 88 94 95 22
4 12 28 32 96
4 28 32 96 29
4 28 29 96 88
4 29 96 88 95
4 32 29 95 96
4 28 9 29 88
4 32 29 13 95
4 96 88 95 22
4 9 28 87 88
4 28 87 88 97
4 28 97 88 96
4 97 88 96 89
4 87 97 89 88
4 28 12 97 96
4 87 97 21 89
4 88 96 89 22
4 19 93 92 98
4 93 92 98 94
4 93 94 98 99
4 94 98 99 100
4 92 94 100 98
4 93 10 94 99
4 92 94 22 100
4 98 99 100 23
4 10 93 101 99
4 93 101 99 102
4 93 102 99 98
4 102 99 98 103
4 101 102 103 99
4 93 19 102 98
4 101 102 20 103
4 99 98 103 23
4 11 50 104 105
4 50 104 105 101
4 50 101 105 99
4 101 105 99 103
4 104 101 103 105
4 50 10 101 99
4 104 101 20 103
4 105 99 103 23
4 10 50 46 99
4 50 46 99 51
4 50 51 99 105
4 51 99 105 106
4 46 51 106 99
4 50 11 51 105
4 46 51 14 106
4 99 105 106 23
4 13 35 48 107
4 35 48 107 46
4 35 46 107 99
4 46 107 99 106
4 48 46 106 107
4 35 10 46 99
4 48 46 14 106
4 107 99 106 23
4 10 35 94 99
4 35 94 99 95
4 35 95 99 107
4 95 99 107 100
4 94 95 100 99
4 35 13 95 107
4 94 95 22 100
4 99 107 100 23
4 21 97 108 109
4 97 108 109 110
4 97 110 109 111
4 110 109 111 112
4 108 110 112 109
4 97 12 110 111
4 108 110 24 112
4 109 111 112 25
4 12 97 96 111
4 97 96 111 89
4 97 89 111 109
4 89 111 109 113
4 96 89 113 111
4 97 21 89 109
4 96 89 22 113
4 111 109 113 25
4 13 32 95 114
4 32 95 114 96
4 32 96 114 111
4 96 114 111 113
4 95 96 113 114
4 32 12 96 111
4 95 96 22 113
4 114 111 113 25
4 12 32 61 111
4 32 61 111 65
4 32 65 111 114
4 65 111 114 115
4 61 65 115 111
4 32 13 65 114
4 61 65 16 115
4 111 114 115 25
4 15 60 64 116
4 60 64 116 61
4 60 61 116 111
4 61 116 111 115
4 64 61 115 116
4 60 12 61 111
4 64 61 16 115
4 116 111 115 25
4 12 60 110 111
4 60 110 111 117
4 60 117 111 116
4 117 111 116 112
4 110 117 112 111
4 60 15 117 116
4 110 117 24 112
4 111 116 112 25
4 22 95 113 118
4 95 113 118 114
4 95 114 118 119
4 114 118 119 120
4 113 114 120 118
4 95 13 114 119
4 113 114 25 120
4 118 119 120 26
4 13 95 107 119
4 95 107 119 100
4 95 100 119 118
4 100 119 118 121
4 107 100 121 119
4 95 22 100 118
4 107 100 23 121
4 119 118 121 26
4 14 48 106 122
4 48 106 122 107
4 48 107 122 119
4 107 122 119 121
4 106 107 121 122
4 48 13 107 119
4 106 107 23 121
4 122 119 121 26
4 13 48 74 119
4 48 74 119 77
4 48 77 119 122
4 77 119 122 123
4 74 77 123 119
4 48 14 77 122
4 74 77 17 123
4 119 122 123 26
4 16 65 76 124
4 65 76 124 74
4 65 74 124 119
4 74 124 119 123
4 76 74 123 124
4 65 13 74 119
4 76 74 17 123
4 124 119 123 26
4 13 65 114 119
4 65 114 119 115
4 65 115 119 124
4 115 119 124 120
4 114 115 120 119
4 65 16 115 124
4 114 115 25 120
4 119 124 120 26
3 9 27 28
3 28 30 12
3 27 0 30
3 30 28 27
3 0 27 33
3 33 34 10
3 27 9 34
3 34 33 27
3 1 36 37
3 37 33 10
3 36 0 33
3 33 37 36
3 0 36 39
3 39 40 4
3 36 1 40
3 40 39 36
3 3 42 43
3 43 39 4
3 42 0 39
3 39 43 42
3 0 42 30
3 30 45 12
3 42 3 45
3 45 30 42
3 1 37 49
3 49 50 11
3 37 10 50
3 50 49 37
3 2 53 54
3 54 51 14
3 53 11 51
3 51 54 53
3 2 52 53
3 53 49 11
3 52 1 49
3 49 53 52
3 14 57 54
3 54 56 2
3 57 5 56
3 56 54 57
3 1 52 55
3 55 56 5
3 52 2 56
3 56 55 52
3 4 40 58
3 58 55 5
3 40 1 55
3 55 58 40
3 12 45 60
3 60 62 15
3 45 3 62
3 62 60 45
3 3 43 67
3 67 68 7
3 43 4 68
3 68 67 43
3 6 71 72
3 72 69 16
3 71 7 69
3 69 72 71
3 6 70 71
3 71 67 7
3 70 3 67
3 67 71 70
3 16 64 72
3 72 73 6
3 64 15 73
3 73 72 64
3 3 70 62
3 62 73 15
3 70 6 73
3 73 62 70
3 5 57 78
3 78 77 17
3 57 14 77
3 77 78 57
3 17 81 78
3 78 80 5
3 81 8 80
3 80 78 81
3 4 58 79
3 79 80 8
3 58 5 80
3 80 79 58
3 7 82 83
3 83 81 17
3 82 8 81
3 81 83 82
3 7 68 82
3 82 79 8
3 68 4 79
3 79 82 68
3 17 76 83
3 83 69 7
3 76 16 69
3 69 83 76
3 18 85 86
3 86 89 22
3 85 21 89
3 89 86 85
3 18 84 85
3 85 87 21
3 84 9 87
3 87 85 84
3 22 92 86
3 86 91 18
3 92 19 91
3 91 86 92
3 9 84 90
3 90 91 19
3 84 18 91
3 91 90 84
3 10 34 93
3 93 90 19
3 34 9 90
3 90 93 34
3 9 28 87
3 87 97 21
3 28 12 97
3 97 87 28
3 19 92 98
3 98 100 23
3 92 22 100
3 100 98 92
3 23 103 98
3 98 102 19
3 103 20 102
3 102 98 103
3 10 93 101
3 101 102 20
3 93 19 102
3 102 101 93
3 11 104 105
3 105 103 23
3 104 20 103
3 103 105 104
3 11 50 104
3 104 101 20
3 50 10 101
3 101 104 50
3 23 106 105
3 105 51 11
3 106 14 51
3 51 105 106
3 21 108 109
3 109 112 25
3 108 24 112
3 112 109 108
3 21 97 108
3 108 110 24
3 97 12 110
3 110 108 97
3 25 113 109
3 109 89 21
3 113 22 89
3 89 109 113
3 15 64 116
3 116 115 25
3 64 16 115
3 115 116 64
3 25 112 116
3 116 117 15
3 112 24 117
3 117 116 112
3 12 60 110
3 110 117 24
3 60 15 117
3 117 110 60
3 22 113 118
3 118 120 26
3 113 25 120
3 120 118 113
3 26 121 118
3 118 100 22
3 121 23 100
3 100 118 121
3 14 106 122
3 122 121 26
3 106 23 121
3 121 122 106
3 26 123 122
3 122 77 14
3 123 17 77
3 77 122 123
3 16 76 124
3 124 123 26
3 76 17 123
3 123 124 76
3 26 120 124
3 124 115 16
3 120 25 115
3 115 124 120

CELL_TYPES 576
10 10 10 10 10 10 10 10 10 10 10 10 10 10 10 10 10 10 10 10 10 10 10 10 10 10 10 10 10 10 10 10 10 10 10 10 10 10 10 10 10 10 10 10 10 10 10 10 10 10 10 10 10 10 10 10 10 10 10 10 10 10 10 10 10 10 10 10 10 10 10 10 10 10 10 10 10 10 10 10 10 10 10 10 10 10 10 10 10 10 10 10 10 10 10 10 10 10 10 10 10 10 10 10 10 10 10 10 10 10 10 10 10 10 10 10 10 10 10 10 10 10 10 10 10 10 10 10 10 10 10 10 10 10 10 10 10 10 10 10 10 10 10 10 10 10 10 10 10 10 10 10 10 10 10 10 10 10 10 10 10 10 10 10 10 10 10 10 10 10 10 10 10 10 10 10 10 10 10 10 10 10 10 10 10 10 10 10 10 10 10 10 10 10 10 10 10 10 10 10 10 10 10 10 10 10 10 10 10 10 10 10 10 10 10 10 10 10 10 10 10 10 10 10 10 10 10 10 10 10 10 10 10 10 10 10 10 10 10 10 10 10 10 10 10 10 10 10 10 10 10 10 10 10 10 10 10 10 10 10 10 10 10 10 10 10 10 10 10 10 10 10 10 10 10 10 10 10 10 10 10 10 10 10 10 10 10 10 10 10 10 10 10 10 10 10 10 10 10 10 10 10 10 10 10 10 10 10 10 10 10 10 10 10 10 10 10 10 10 10 10 10 10 10 10 10 10 10 10 10 10 10 10 10 10 10 10 10 10 10 10 10 10 10 10 10 10 10 10 10 10 10 10 10 10 10 10 10 10 10 10 10 10 10 10 10 10 10 10 10 10 10 10 10 10 10 10 10 10 10 10 10 10 10 5 5 5 5 5 5 5 5 5 5 5 5 5 5 5 5 5 5 5 5 5 5 5 5 5 5 5 5 5 5 5 5 5 5 5 5 5 5 5 5 5 5 5 5 5 5 5 5 5 5 5 5 5 5 5 5 5 5 5 5 5 5 5 5 5 5 5 5 5 5 5 5 5 5 5 5 5 5 5 5 5 5 5 5 5 5 5 5 5 5 5 5 5 5 5 5 5 5 5 5 5 5 5 5 5 5 5 5 5 5 5 5 5 5 5 5 5 5 5 5 5 5 5 5 5 5 5 5 5 5 5 5 5 5 5 5 5 5 5 5 5 5 5 5 5 5 5 5 5 5 5 5 5 5 5 5 5 5 5 5 5 5 5 5 5 5 5 5 5 5 5 5 5 5 5 5 5 5 5 5 5 5 5 5 5 5 5 5 5 5 5 5 
CELL_DATA 576
Scalars  Label int1
LOOKUP_TABLE FreeFempp_table
0
0
0
0
0
0
0
0
0
0
0
0
0
0
0
0
0
0
0
0
0
0
0
0
0
0
0
0
0
0
0
0
0
0
0
0
0
0
0
0
0
0
0
0
0
0
0
0
0
0
0
0
0
0
0
0
0
0
0
0
0
0
0
0
0
0
0
0
0
0
0
0
0
0
0
0
0
0
0
0
0
0
0
0
0
0
0
0
0
0
0
0
0
0
0
0
0
0
0
0
0
0
0
0
0
0
0
0
0
0
0
0
0
0
0
0
0
0
0
0
0
0
0
0
0
0
0
0
0
0
0
0
0
0
0
0
0
0
0
0
0
0
0
0
0
0
0
0
0
0
0
0
0
0
0
0
0
0
0
0
0
0
0
0
0
0
0
0
0
0
0
0
0
0
0
0
0
0
0
0
0
0
0
0
0
0
0
0
0
0
0
0
0
0
0
0
0
0
0
0
0
0
0
0
0
0
0
0
0
0
0
0
0
0
0
0
0
0
0
0
0
0
0
0
0
0
0
0
0
0
0
0
0
0
0
0
0
0
0
0
0
0
0
0
0
0
0
0
0
0
0
0
0
0
0
0
0
0
0
0
0
0
0
0
0
0
0
0
0
0
0
0
0
0
0
0
0
0
0
0
0
0
0
0
0
0
0
0
0
0
0
0
0
0
0
0
0
0
0
0
0
0
0
0
0
0
0
0
0
0
0
0
0
0
0
0
0
0
0
0
0
0
0
0
0
0
0
0
0
0
0
0
0
0
0
0
0
0
0
0
0
0
0
0
0
0
0
0
0
0
0
0
0
0
0
0
0
0
0
0
0
0
0
0
0
0
0
0
0
0
0
0
0
0
0
0
0
0
0
0
0
0
0
0
4
4
4
4
1
1
1
1
1
1
1
1
5
5
5
5
5
5
5
5
4
4
4
4
1
1
1
1
2
2
2
2
1
1
1
1
2
2
2
2
5
5
5
5
5
5
5
5
4
4
4
4
5
5
5
5
3
3
3
3
5
5
5
5
3
3
3
3
4
4
4
4
2
2
2
2
2
2
2
2
5
5
5
5
3
3
3
3
5
5
5
5
3
3
3
3
6
6
6
6
4
4
4
4
6
6
6
6
1
1
1
1
1
1
1
1
4
4
4
4
6
6
6
6
6
6
6
6
1
1
1
1
2
2
2
2
1
1
1
1
2
2
2
2
6
6
6
6
4
4
4
4
6
6
6
6
3
3
3
3
3
3
3
3
4
4
4
4
6
6
6
6
6
6
6
6
2
2
2
2
2
2
2
2
3
3
3
3
3
3
3
3

LOOKUP_TABLE FreeFempp_table 7
1.00000000 0.00000000 0.00000000 1.00000000
1.00000000 1.00000000 0.00000000 1.00000000
1.00000000 0.00000000 1.00000000 1.00000000
0.00000000 1.00000000 0.00000000 1.00000000
0.00000000 1.00000000 1.00000000 1.00000000
0.00000000 0.00000000 1.00000000 1.00000000
1.00000000 0.50000000 0.00000000 1.00000000

POINT_DATA 125
FIELD FieldData 4
VelocityX 1 125 float
 0.00000000e+00
 0.00000000e+00
 0.00000000e+00
 0.00000000e+00
 0.00000000e+00
 0.00000000e+00
 0.00000000e+00
 -0.00000000e+00
 -0.00000000e+00
 0.00000000e+00
 0.00000000e+00
 -0.00000000e+00
 0.00000000e+00
 -8.35050829e-04
 0.00000000e+00
 0.00000000e+00
 0.00000000e+00
 -0.00000000e+00
 0.00000000e+00
 -0.00000000e+00
 0.00000000e+00
 0.00000000e+00
 0.00000000e+00
 -0.00000000e+00
 0.00000000e+00
 -0.00000000e+00
 0.00000000e+00
 0.00000000e+00
 0.00000000e+00
 -1.71940193e-01
 -0.00000000e+00
 -1.43650427e-01
 -1.88500192e-02
 0.00000000e+00
 -0.00000000e+00
 -2.10789472e-01
 0.00000000e+00
 0.00000000e+00
 -2.05776855e-01
 -0.00000000e+00
 0.00000000e+00
 -1.27603151e-02
 0.00000000e+00
 0.00000000e+00
 -7.56633934e-03
 0.00000000e+00
 -1.11190207e-01
 -1.03190519e-01
 2.11440362e-02
 -0.00000000e+00
 -0.00000000e+00
 -0.00000000e+00
 0.00000000e+00
 0.00000000e+00
 -0.00000000e+00
 -0.00000000e+00
 0.00000000e+00
 0.00000000e+00
 0.00000000e+00
 5.36591141e-03
 -0.00000000e+00
 1.02801308e-01
 0.00000000e+00
 9.88451540e-02
 0.00000000e+00
 2.14412034e-01
 1.91179797e-01
 0.00000000e+00
 0.00000000e+00
 0.00000000e+00
 -0.00000000e+00
 -0.00000000e+00
 0.00000000e+00
 0.00000000e+00
 1.67901248e-01
 1.65582836e-01
 0.00000000e+00
 0.00000000e+00
 0.00000000e+00
 -0.00000000e+00
 -0.00000000e+00
 -0.00000000e+00
 0.00000000e+00
 0.00000000e+00
 0.00000000e+00
 0.00000000e+00
 -0.00000000e+00
 0.00000000e+00
 -1.58296183e-01
 0.00000000e+00
 0.00000000e+00
 -0.00000000e+00
 0.00000000e+00
 -0.00000000e+00
 -1.91571116e-01
 -4.88848891e-03
 -4.73774970e-03
 0.00000000e+00
 0.00000000e+00
 -9.79629755e-02
 0.00000000e+00
 -0.00000000e+00
 -0.00000000e+00
 0.00000000e+00
 0.00000000e+00
 0.00000000e+00
 -0.00000000e+00
 6.04478782e-03
 -0.00000000e+00
 0.00000000e+00
 -0.00000000e+00
 1.08264320e-01
 -0.00000000e+00
 0.00000000e+00
 2.01614201e-01
 -0.00000000e+00
 0.00000000e+00
 0.00000000e+00
 0.00000000e+00
 1.57421499e-01
 -0.00000000e+00
 -0.00000000e+00
 -0.00000000e+00
 -0.00000000e+00
 0.00000000e+00

VelocityY 1 125 float
 0.00000000e+00
 -0.00000000e+00
 -0.00000000e+00
 0.00000000e+00
 -0.00000000e+00
 -0.00000000e+00
 0.00000000e+00
 -0.00000000e+00
 0.00000000e+00
 -0.00000000e+00
 0.00000000e+00
 0.00000000e+00
 0.00000000e+00
 2.14018728e-04
 0.00000000e+00
 -0.00000000e+00
 -0.00000000e+00
 -0.00000000e+00
 0.00000000e+00
 -0.00000000e+00
 -0.00000000e+00
 0.00000000e+00
 -0.00000000e+00
 0.00000000e+00
 -0.00000000e+00
 0.00000000e+00
 -0.00000000e+00
 0.00000000e+00
 0.00000000e+00
 -1.43420938e-02
 0.00000000e+00
 1.05935603e-03
 1.33485496e-01
 0.00000000e+00
 0.00000000e+00
 -3.37140970e-02
 0.00000000e+00
 -0.00000000e+00
 -2.58034393e-02
 -0.00000000e+00
 0.00000000e+00
 1.38386665e-02
 -0.00000000e+00
 -0.00000000e+00
 1.66546687e-01
 0.00000000e+00
 -1.48955733e-01
 -1.58168733e-01
 -1.39359280e-01
 -0.00000000e+00
 0.00000000e+00
 0.00000000e+00
 0.00000000e+00
 0.00000000e+00
 0.00000000e+00
 -0.00000000e+00
 0.00000000e+00
 -0.00000000e+00
 -0.00000000e+00
 -1.45095617e-01
 -0.00000000e+00
 1.50419101e-01
 0.00000000e+00
 1.60040662e-01
 0.00000000e+00
 2.67276913e-02
 3.42709571e-02
 0.00000000e+00
 0.00000000e+00
 0.00000000e+00
 0.00000000e+00
 -0.00000000e+00
 0.00000000e+00
 0.00000000e+00
 2.48219632e-03
 9.04510356e-03
 0.00000000e+00
 0.00000000e+00
 0.00000000e+00
 0.00000000e+00
 -0.00000000e+00
 0.00000000e+00
 -0.00000000e+00
 -0.00000000e+00
 -0.00000000e+00
 -0.00000000e+00
 0.00000000e+00
 0.00000000e+00
 -2.56072227e-02
 -0.00000000e+00
 0.00000000e+00
 0.00000000e+00
 -0.00000000e+00
 0.00000000e+00
 -3.64001170e-02
 3.86483595e-03
 1.55776739e-01
 -0.00000000e+00
 -0.00000000e+00
 -1.61254004e-01
 -0.00000000e+00
 -0.00000000e+00
 -0.00000000e+00
 -0.00000000e+00
 0.00000000e+00
 -0.00000000e+00
 -0.00000000e+00
 -1.54357195e-01
 0.00000000e+00
 -0.00000000e+00
 0.00000000e+00
 1.46436036e-01
 0.00000000e+00
 0.00000000e+00
 2.19020694e-02
 -0.00000000e+00
 -0.00000000e+00
 0.00000000e+00
 -0.00000000e+00
 -2.93333386e-03
 0.00000000e+00
 -0.00000000e+00
 0.00000000e+00
 0.00000000e+00
 -0.00000000e+00

VelocityZ 1 125 float
 0.00000000e+00
 0.00000000e+00
 -0.00000000e+00
 -0.00000000e+00
 0.00000000e+00
 -0.00000000e+00
 -0.00000000e+00
 -0.00000000e+00
 0.00000000e+00
 -0.00000000e+00
 0.00000000e+00
 0.00000000e+00
 -0.00000000e+00
 9.19863000e-04
 -0.00000000e+00
 -0.00000000e+00
 -0.00000000e+00
 -0.00000000e+00
 -0.00000000e+00
 -0.00000000e+00
 0.00000000e+00
 0.00000000e+00
 0.00000000e+00
 0.00000000e+00
 -0.00000000e+00
 -0.00000000e+00
 0.00000000e+00
 -0.00000000e+00
 0.00000000e+00
 -1.22386841e-02
 -0.00000000e+00
 -1.12600354e-02
 -5.09637129e-03
 0.00000000e+00
 -0.00000000e+00
 -1.40578253e-02
 0.00000000e+00
 0.00000000e+00
 -1.79154647e-03
 -0.00000000e+00
 -0.00000000e+00
 1.91488340e-02
 -0.00000000e+00
 -0.00000000e+00
 5.90302283e-03
 -0.00000000e+00
 -7.01164221e-03
 -1.57529046e-03
 4.99541219e-03
 0.00000000e+00
 0.00000000e+00
 0.00000000e+00
 -0.00000000e+00
 0.00000000e+00
 0.00000000e+00
 -0.00000000e+00
 -0.00000000e+00
 0.00000000e+00
 -0.00000000e+00
 8.68214387e-03
 -0.00000000e+00
 6.59007486e-03
 0.00000000e+00
 8.52400437e-03
 -0.00000000e+00
 1.58074591e-02
 1.59566402e-02
 -0.00000000e+00
 0.00000000e+00
 0.00000000e+00
 0.00000000e+00
 0.00000000e+00
 -0.00000000e+00
 -0.00000000e+00
 1.44460220e-02
 5.42455167e-03
 0.00000000e+00
 0.00000000e+00
 0.00000000e+00
 0.00000000e+00
 -0.00000000e+00
 0.00000000e+00
 0.00000000e+00
 0.00000000e+00
 -0.00000000e+00
 0.00000000e+00
 0.00000000e+00
 0.00000000e+00
 -2.74285069e-03
 -0.00000000e+00
 -0.00000000e+00
 -0.00000000e+00
 0.00000000e+00
 0.00000000e+00
 -1.61929727e-02
 -1.88276656e-02
 -8.04338977e-03
 0.00000000e+00
 0.00000000e+00
 -7.50223966e-03
 0.00000000e+00
 0.00000000e+00
 -0.00000000e+00
 -0.00000000e+00
 -0.00000000e+00
 -0.00000000e+00
 0.00000000e+00
 -5.56691596e-03
 0.00000000e+00
 0.00000000e+00
 -0.00000000e+00
 2.28883489e-03
 -0.00000000e+00
 0.00000000e+00
 -5.57736494e-04
 -0.00000000e+00
 0.00000000e+00
 -0.00000000e+00
 -0.00000000e+00
 1.02164773e-02
 -0.00000000e+00
 -0.00000000e+00
 0.00000000e+00
 0.00000000e+00
 0.00000000e+00

Temperature 1 125 float
 5.00000000e-01
 -2.77217776e-01
 -5.00000000e-01
 5.00000000e-01
 1.91222299e-02
 -5.00000000e-01
 5.00000000e-01
 2.66087562e-01
 -5.00000000e-01
 5.00000000e-01
 -3.14668596e-01
 -5.00000000e-01
 5.00000000e-01
 -3.65907513e-03
 -5.00000000e-01
 5.00000000e-01
 3.05537164e-01
 -5.00000000e-01
 5.00000000e-01
 -2.71206528e-01
 -5.00000000e-01
 5.00000000e-01
 -2.28935648e-02
 -5.00000000e-01
 5.00000000e-01
 2.67679185e-01
 -5.00000000e-01
 5.00000000e-01
 5.00000000e-01
 -1.86755717e-01
 5.00000000e-01
 -1.31659657e-01
 1.64218936e-02
 -1.82083935e-01
 -2.05041543e-01
 -2.42642522e-01
 -9.92213488e-02
 -3.07884961e-01
 -2.39003986e-01
 -4.94225323e-02
 -1.93509251e-01
 1.54654542e-03
 5.00000000e-01
 1.21267542e-01
 5.69164492e-02
 5.00000000e-01
 -2.83199191e-01
 -3.02980095e-01
 -2.94119641e-02
 -3.76500368e-01
 -3.92577440e-01
 -5.00000000e-01
 -3.75850052e-01
 -5.00000000e-01
 -5.00000000e-01
 -2.87263334e-01
 -5.00000000e-01
 -5.00000000e-01
 -9.10099894e-02
 -5.00867851e-02
 5.00000000e-01
 2.87325412e-01
 5.00000000e-01
 3.11717421e-01
 3.75221193e-01
 2.29350299e-01
 2.33749226e-01
 3.28980386e-01
 2.28947416e-01
 2.99656153e-01
 5.00000000e-01
 3.65816623e-01
 3.73192340e-01
 5.00000000e-01
 1.74608096e-01
 1.52353600e-01
 1.99465290e-01
 -5.00000000e-01
 -5.00000000e-01
 8.01398307e-02
 -5.00000000e-01
 -5.00000000e-01
 1.01291291e-01
 1.61439568e-01
 5.00000000e-01
 5.00000000e-01
 -8.58877674e-02
 5.00000000e-01
 -1.51895061e-01
 8.36680084e-02
 -1.81453198e-01
 -9.58641544e-02
 -2.31413990e-01
 -3.05361569e-01
 -2.45037481e-01
 5.88088529e-03
 3.75367142e-02
 5.00000000e-01
 -3.20812196e-01
 -3.14098924e-01
 -1.35180086e-01
 -3.80230129e-01
 -3.87988001e-01
 -5.00000000e-01
 -5.00000000e-01
 -5.00000000e-01
 -5.00000000e-01
 -5.54693677e-02
 5.00000000e-01
 2.76912212e-01
 5.00000000e-01
 2.94148743e-01
 3.58493626e-01
 1.94160700e-01
 2.32859254e-01
 2.98932791e-01
 3.71044308e-01
 5.00000000e-01
 5.60332090e-02
 1.42525196e-01
 9.29751322e-02
 -5.00000000e-01
 -5.00000000e-01
 -5.00000000e-01
 1.67741239e-01

